CC = gcc
SRC = main.c holberton.c
OBJ = $(SRC:.c=.o)
NAME = holberton
RM = rm -f
CFLAGS = -Wall -Werror -Wextra -pedantic

.PHONY: all clean oclean fclean re

# Builds executable
all: m.h $(OBJ) 
	$(CC) $(OBJ) -o $(NAME)

# Deletes all Emacs and Vim temporary files along with the executable
clean:
	$(RM) *~ $(NAME)

# Deletes the object files
oclean:
	$(RM) $(OBJ)

# Deletes the Emacs temporary files, the executable, and the object files
fclean: clean oclean

# Forces recompilation of all source files
re: oclean all
