CC = gcc
SRC = main.c holberton.c
OBJ = $(SRC:.c=.o)
NAME = holberton
RM = rm -f

# Builds executable
all: $(OBJ) m.h
	$(CC) $(OBJ) -o $(NAME)

# Eletes all Emacs and Vim temporary files along with the executable
clean:
	$(RM) *~ $(NAME)

# Deletes the object files
oclean:
	$(RM) $(OBJ)

# Deletes the Emacs temporary files, the executable, and the object files
fclean: clean object

# Forces recompilation of all source files
re: all oclean



